+ 0.1 2 0 cbr 1000 ------- 0 2.0 1.0 0 0
- 0.1 2 0 cbr 1000 ------- 0 2.0 1.0 0 0
+ 0.1 2 0 cbr 1000 ------- 0 2.0 1.0 1 1
+ 0.1 2 0 cbr 1000 ------- 0 2.0 1.0 2 2
+ 0.1 2 0 cbr 1000 ------- 0 2.0 1.0 3 3
+ 0.1 2 0 cbr 1000 ------- 0 2.0 1.0 4 4
+ 0.1 2 0 cbr 1000 ------- 0 2.0 1.0 5 5
+ 0.1 2 0 cbr 1000 ------- 0 2.0 1.0 6 6
+ 0.1 3 0 cbr 1000 ------- 0 3.0 1.0 0 7
- 0.1 3 0 cbr 1000 ------- 0 3.0 1.0 0 7
+ 0.1 3 0 cbr 1000 ------- 0 3.0 1.0 1 8
+ 0.1 3 0 cbr 1000 ------- 0 3.0 1.0 2 9
+ 0.1 3 0 cbr 1000 ------- 0 3.0 1.0 3 10
- 0.100667 2 0 cbr 1000 ------- 0 2.0 1.0 1 1
- 0.100667 3 0 cbr 1000 ------- 0 3.0 1.0 1 8
- 0.101333 2 0 cbr 1000 ------- 0 2.0 1.0 2 2
- 0.101333 3 0 cbr 1000 ------- 0 3.0 1.0 2 9
- 0.102 2 0 cbr 1000 ------- 0 2.0 1.0 3 3
- 0.102 3 0 cbr 1000 ------- 0 3.0 1.0 3 10
- 0.102667 2 0 cbr 1000 ------- 0 2.0 1.0 4 4
- 0.103333 2 0 cbr 1000 ------- 0 2.0 1.0 5 5
- 0.104 2 0 cbr 1000 ------- 0 2.0 1.0 6 6
+ 0.15 3 0 cbr 1000 ------- 0 3.0 1.0 4 11
- 0.15 3 0 cbr 1000 ------- 0 3.0 1.0 4 11
+ 0.15 3 0 cbr 1000 ------- 0 3.0 1.0 5 12
+ 0.15 3 0 cbr 1000 ------- 0 3.0 1.0 6 13
+ 0.15 3 0 cbr 1000 ------- 0 3.0 1.0 7 14
- 0.150667 3 0 cbr 1000 ------- 0 3.0 1.0 5 12
- 0.151333 3 0 cbr 1000 ------- 0 3.0 1.0 6 13
- 0.152 3 0 cbr 1000 ------- 0 3.0 1.0 7 14
+ 0.18 2 0 cbr 1000 ------- 0 2.0 1.0 7 15
- 0.18 2 0 cbr 1000 ------- 0 2.0 1.0 7 15
+ 0.18 2 0 cbr 1000 ------- 0 2.0 1.0 8 16
+ 0.18 2 0 cbr 1000 ------- 0 2.0 1.0 9 17
+ 0.18 2 0 cbr 1000 ------- 0 2.0 1.0 10 18
+ 0.18 2 0 cbr 1000 ------- 0 2.0 1.0 11 19
+ 0.18 2 0 cbr 1000 ------- 0 2.0 1.0 12 20
+ 0.18 2 0 cbr 1000 ------- 0 2.0 1.0 13 21
- 0.180667 2 0 cbr 1000 ------- 0 2.0 1.0 8 16
- 0.181333 2 0 cbr 1000 ------- 0 2.0 1.0 9 17
- 0.182 2 0 cbr 1000 ------- 0 2.0 1.0 10 18
- 0.182667 2 0 cbr 1000 ------- 0 2.0 1.0 11 19
- 0.183333 2 0 cbr 1000 ------- 0 2.0 1.0 12 20
- 0.184 2 0 cbr 1000 ------- 0 2.0 1.0 13 21
+ 0.2 3 0 cbr 1000 ------- 0 3.0 1.0 8 22
- 0.2 3 0 cbr 1000 ------- 0 3.0 1.0 8 22
+ 0.2 3 0 cbr 1000 ------- 0 3.0 1.0 9 23
+ 0.2 3 0 cbr 1000 ------- 0 3.0 1.0 10 24
+ 0.2 3 0 cbr 1000 ------- 0 3.0 1.0 11 25
r 0.200667 2 0 cbr 1000 ------- 0 2.0 1.0 0 0
+ 0.200667 0 1 cbr 1000 ------- 0 2.0 1.0 0 0
- 0.200667 0 1 cbr 1000 ------- 0 2.0 1.0 0 0
r 0.200667 3 0 cbr 1000 ------- 0 3.0 1.0 0 7
+ 0.200667 0 1 cbr 1000 ------- 0 3.0 1.0 0 7
- 0.200667 3 0 cbr 1000 ------- 0 3.0 1.0 9 23
r 0.201333 2 0 cbr 1000 ------- 0 2.0 1.0 1 1
+ 0.201333 0 1 cbr 1000 ------- 0 2.0 1.0 1 1
r 0.201333 3 0 cbr 1000 ------- 0 3.0 1.0 1 8
+ 0.201333 0 1 cbr 1000 ------- 0 3.0 1.0 1 8
- 0.201333 3 0 cbr 1000 ------- 0 3.0 1.0 10 24
- 0.202 0 1 cbr 1000 ------- 0 3.0 1.0 0 7
r 0.202 2 0 cbr 1000 ------- 0 2.0 1.0 2 2
+ 0.202 0 1 cbr 1000 ------- 0 2.0 1.0 2 2
r 0.202 3 0 cbr 1000 ------- 0 3.0 1.0 2 9
+ 0.202 0 1 cbr 1000 ------- 0 3.0 1.0 2 9
- 0.202 3 0 cbr 1000 ------- 0 3.0 1.0 11 25
r 0.202667 2 0 cbr 1000 ------- 0 2.0 1.0 3 3
+ 0.202667 0 1 cbr 1000 ------- 0 2.0 1.0 3 3
r 0.202667 3 0 cbr 1000 ------- 0 3.0 1.0 3 10
+ 0.202667 0 1 cbr 1000 ------- 0 3.0 1.0 3 10
r 0.203333 2 0 cbr 1000 ------- 0 2.0 1.0 4 4
+ 0.203333 0 1 cbr 1000 ------- 0 2.0 1.0 4 4
- 0.203333 0 1 cbr 1000 ------- 0 2.0 1.0 1 1
r 0.204 2 0 cbr 1000 ------- 0 2.0 1.0 5 5
+ 0.204 0 1 cbr 1000 ------- 0 2.0 1.0 5 5
- 0.204667 0 1 cbr 1000 ------- 0 3.0 1.0 1 8
r 0.204667 2 0 cbr 1000 ------- 0 2.0 1.0 6 6
+ 0.204667 0 1 cbr 1000 ------- 0 2.0 1.0 6 6
- 0.206 0 1 cbr 1000 ------- 0 2.0 1.0 2 2
- 0.207333 0 1 cbr 1000 ------- 0 3.0 1.0 2 9
- 0.208667 0 1 cbr 1000 ------- 0 2.0 1.0 3 3
- 0.21 0 1 cbr 1000 ------- 0 3.0 1.0 3 10
- 0.211333 0 1 cbr 1000 ------- 0 2.0 1.0 4 4
- 0.212667 0 1 cbr 1000 ------- 0 2.0 1.0 5 5
- 0.214 0 1 cbr 1000 ------- 0 2.0 1.0 6 6
+ 0.25 3 0 cbr 1000 ------- 0 3.0 1.0 12 26
- 0.25 3 0 cbr 1000 ------- 0 3.0 1.0 12 26
+ 0.25 3 0 cbr 1000 ------- 0 3.0 1.0 13 27
+ 0.25 3 0 cbr 1000 ------- 0 3.0 1.0 14 28
+ 0.25 3 0 cbr 1000 ------- 0 3.0 1.0 15 29
- 0.250667 3 0 cbr 1000 ------- 0 3.0 1.0 13 27
r 0.250667 3 0 cbr 1000 ------- 0 3.0 1.0 4 11
+ 0.250667 0 1 cbr 1000 ------- 0 3.0 1.0 4 11
- 0.250667 0 1 cbr 1000 ------- 0 3.0 1.0 4 11
- 0.251333 3 0 cbr 1000 ------- 0 3.0 1.0 14 28
r 0.251333 3 0 cbr 1000 ------- 0 3.0 1.0 5 12
+ 0.251333 0 1 cbr 1000 ------- 0 3.0 1.0 5 12
- 0.252 3 0 cbr 1000 ------- 0 3.0 1.0 15 29
r 0.252 3 0 cbr 1000 ------- 0 3.0 1.0 6 13
+ 0.252 0 1 cbr 1000 ------- 0 3.0 1.0 6 13
- 0.252 0 1 cbr 1000 ------- 0 3.0 1.0 5 12
r 0.252667 3 0 cbr 1000 ------- 0 3.0 1.0 7 14
+ 0.252667 0 1 cbr 1000 ------- 0 3.0 1.0 7 14
- 0.253333 0 1 cbr 1000 ------- 0 3.0 1.0 6 13
- 0.254667 0 1 cbr 1000 ------- 0 3.0 1.0 7 14
+ 0.26 2 0 cbr 1000 ------- 0 2.0 1.0 14 30
- 0.26 2 0 cbr 1000 ------- 0 2.0 1.0 14 30
+ 0.26 2 0 cbr 1000 ------- 0 2.0 1.0 15 31
+ 0.26 2 0 cbr 1000 ------- 0 2.0 1.0 16 32
+ 0.26 2 0 cbr 1000 ------- 0 2.0 1.0 17 33
+ 0.26 2 0 cbr 1000 ------- 0 2.0 1.0 18 34
+ 0.26 2 0 cbr 1000 ------- 0 2.0 1.0 19 35
+ 0.26 2 0 cbr 1000 ------- 0 2.0 1.0 20 36
- 0.260667 2 0 cbr 1000 ------- 0 2.0 1.0 15 31
- 0.261333 2 0 cbr 1000 ------- 0 2.0 1.0 16 32
- 0.262 2 0 cbr 1000 ------- 0 2.0 1.0 17 33
- 0.262667 2 0 cbr 1000 ------- 0 2.0 1.0 18 34
- 0.263333 2 0 cbr 1000 ------- 0 2.0 1.0 19 35
- 0.264 2 0 cbr 1000 ------- 0 2.0 1.0 20 36
r 0.280667 2 0 cbr 1000 ------- 0 2.0 1.0 7 15
+ 0.280667 0 1 cbr 1000 ------- 0 2.0 1.0 7 15
- 0.280667 0 1 cbr 1000 ------- 0 2.0 1.0 7 15
r 0.281333 2 0 cbr 1000 ------- 0 2.0 1.0 8 16
+ 0.281333 0 1 cbr 1000 ------- 0 2.0 1.0 8 16
r 0.282 2 0 cbr 1000 ------- 0 2.0 1.0 9 17
+ 0.282 0 1 cbr 1000 ------- 0 2.0 1.0 9 17
- 0.282 0 1 cbr 1000 ------- 0 2.0 1.0 8 16
r 0.282667 2 0 cbr 1000 ------- 0 2.0 1.0 10 18
+ 0.282667 0 1 cbr 1000 ------- 0 2.0 1.0 10 18
r 0.283333 2 0 cbr 1000 ------- 0 2.0 1.0 11 19
+ 0.283333 0 1 cbr 1000 ------- 0 2.0 1.0 11 19
- 0.283333 0 1 cbr 1000 ------- 0 2.0 1.0 9 17
r 0.284 2 0 cbr 1000 ------- 0 2.0 1.0 12 20
+ 0.284 0 1 cbr 1000 ------- 0 2.0 1.0 12 20
r 0.284667 2 0 cbr 1000 ------- 0 2.0 1.0 13 21
+ 0.284667 0 1 cbr 1000 ------- 0 2.0 1.0 13 21
- 0.284667 0 1 cbr 1000 ------- 0 2.0 1.0 10 18
- 0.286 0 1 cbr 1000 ------- 0 2.0 1.0 11 19
- 0.287333 0 1 cbr 1000 ------- 0 2.0 1.0 12 20
- 0.288667 0 1 cbr 1000 ------- 0 2.0 1.0 13 21
+ 0.3 3 0 cbr 1000 ------- 0 3.0 1.0 16 37
- 0.3 3 0 cbr 1000 ------- 0 3.0 1.0 16 37
+ 0.3 3 0 cbr 1000 ------- 0 3.0 1.0 17 38
+ 0.3 3 0 cbr 1000 ------- 0 3.0 1.0 18 39
+ 0.3 3 0 cbr 1000 ------- 0 3.0 1.0 19 40
- 0.300667 3 0 cbr 1000 ------- 0 3.0 1.0 17 38
r 0.300667 3 0 cbr 1000 ------- 0 3.0 1.0 8 22
+ 0.300667 0 1 cbr 1000 ------- 0 3.0 1.0 8 22
- 0.300667 0 1 cbr 1000 ------- 0 3.0 1.0 8 22
- 0.301333 3 0 cbr 1000 ------- 0 3.0 1.0 18 39
r 0.301333 3 0 cbr 1000 ------- 0 3.0 1.0 9 23
+ 0.301333 0 1 cbr 1000 ------- 0 3.0 1.0 9 23
- 0.302 3 0 cbr 1000 ------- 0 3.0 1.0 19 40
r 0.302 3 0 cbr 1000 ------- 0 3.0 1.0 10 24
+ 0.302 0 1 cbr 1000 ------- 0 3.0 1.0 10 24
- 0.302 0 1 cbr 1000 ------- 0 3.0 1.0 9 23
r 0.302667 3 0 cbr 1000 ------- 0 3.0 1.0 11 25
+ 0.302667 0 1 cbr 1000 ------- 0 3.0 1.0 11 25
- 0.303333 0 1 cbr 1000 ------- 0 3.0 1.0 10 24
- 0.304667 0 1 cbr 1000 ------- 0 3.0 1.0 11 25
+ 0.34 2 0 cbr 1000 ------- 0 2.0 1.0 21 41
- 0.34 2 0 cbr 1000 ------- 0 2.0 1.0 21 41
+ 0.34 2 0 cbr 1000 ------- 0 2.0 1.0 22 42
+ 0.34 2 0 cbr 1000 ------- 0 2.0 1.0 23 43
+ 0.34 2 0 cbr 1000 ------- 0 2.0 1.0 24 44
+ 0.34 2 0 cbr 1000 ------- 0 2.0 1.0 25 45
+ 0.34 2 0 cbr 1000 ------- 0 2.0 1.0 26 46
+ 0.34 2 0 cbr 1000 ------- 0 2.0 1.0 27 47
- 0.340667 2 0 cbr 1000 ------- 0 2.0 1.0 22 42
- 0.341333 2 0 cbr 1000 ------- 0 2.0 1.0 23 43
- 0.342 2 0 cbr 1000 ------- 0 2.0 1.0 24 44
- 0.342667 2 0 cbr 1000 ------- 0 2.0 1.0 25 45
- 0.343333 2 0 cbr 1000 ------- 0 2.0 1.0 26 46
- 0.344 2 0 cbr 1000 ------- 0 2.0 1.0 27 47
+ 0.35 3 0 cbr 1000 ------- 0 3.0 1.0 20 48
- 0.35 3 0 cbr 1000 ------- 0 3.0 1.0 20 48
+ 0.35 3 0 cbr 1000 ------- 0 3.0 1.0 21 49
+ 0.35 3 0 cbr 1000 ------- 0 3.0 1.0 22 50
+ 0.35 3 0 cbr 1000 ------- 0 3.0 1.0 23 51
- 0.350667 3 0 cbr 1000 ------- 0 3.0 1.0 21 49
r 0.350667 3 0 cbr 1000 ------- 0 3.0 1.0 12 26
+ 0.350667 0 1 cbr 1000 ------- 0 3.0 1.0 12 26
- 0.350667 0 1 cbr 1000 ------- 0 3.0 1.0 12 26
- 0.351333 3 0 cbr 1000 ------- 0 3.0 1.0 22 50
r 0.351333 3 0 cbr 1000 ------- 0 3.0 1.0 13 27
+ 0.351333 0 1 cbr 1000 ------- 0 3.0 1.0 13 27
- 0.352 3 0 cbr 1000 ------- 0 3.0 1.0 23 51
r 0.352 3 0 cbr 1000 ------- 0 3.0 1.0 14 28
+ 0.352 0 1 cbr 1000 ------- 0 3.0 1.0 14 28
- 0.352 0 1 cbr 1000 ------- 0 3.0 1.0 13 27
r 0.352667 3 0 cbr 1000 ------- 0 3.0 1.0 15 29
+ 0.352667 0 1 cbr 1000 ------- 0 3.0 1.0 15 29
- 0.353333 0 1 cbr 1000 ------- 0 3.0 1.0 14 28
- 0.354667 0 1 cbr 1000 ------- 0 3.0 1.0 15 29
r 0.360667 2 0 cbr 1000 ------- 0 2.0 1.0 14 30
+ 0.360667 0 1 cbr 1000 ------- 0 2.0 1.0 14 30
- 0.360667 0 1 cbr 1000 ------- 0 2.0 1.0 14 30
r 0.361333 2 0 cbr 1000 ------- 0 2.0 1.0 15 31
+ 0.361333 0 1 cbr 1000 ------- 0 2.0 1.0 15 31
r 0.362 2 0 cbr 1000 ------- 0 2.0 1.0 16 32
+ 0.362 0 1 cbr 1000 ------- 0 2.0 1.0 16 32
- 0.362 0 1 cbr 1000 ------- 0 2.0 1.0 15 31
r 0.362667 2 0 cbr 1000 ------- 0 2.0 1.0 17 33
+ 0.362667 0 1 cbr 1000 ------- 0 2.0 1.0 17 33
r 0.363333 2 0 cbr 1000 ------- 0 2.0 1.0 18 34
+ 0.363333 0 1 cbr 1000 ------- 0 2.0 1.0 18 34
- 0.363333 0 1 cbr 1000 ------- 0 2.0 1.0 16 32
r 0.364 2 0 cbr 1000 ------- 0 2.0 1.0 19 35
+ 0.364 0 1 cbr 1000 ------- 0 2.0 1.0 19 35
r 0.364667 2 0 cbr 1000 ------- 0 2.0 1.0 20 36
+ 0.364667 0 1 cbr 1000 ------- 0 2.0 1.0 20 36
- 0.364667 0 1 cbr 1000 ------- 0 2.0 1.0 17 33
- 0.366 0 1 cbr 1000 ------- 0 2.0 1.0 18 34
- 0.367333 0 1 cbr 1000 ------- 0 2.0 1.0 19 35
- 0.368667 0 1 cbr 1000 ------- 0 2.0 1.0 20 36
+ 0.4 3 0 cbr 1000 ------- 0 3.0 1.0 24 52
- 0.4 3 0 cbr 1000 ------- 0 3.0 1.0 24 52
+ 0.4 3 0 cbr 1000 ------- 0 3.0 1.0 25 53
+ 0.4 3 0 cbr 1000 ------- 0 3.0 1.0 26 54
+ 0.4 3 0 cbr 1000 ------- 0 3.0 1.0 27 55
- 0.400667 3 0 cbr 1000 ------- 0 3.0 1.0 25 53
r 0.400667 3 0 cbr 1000 ------- 0 3.0 1.0 16 37
+ 0.400667 0 1 cbr 1000 ------- 0 3.0 1.0 16 37
- 0.400667 0 1 cbr 1000 ------- 0 3.0 1.0 16 37
- 0.401333 3 0 cbr 1000 ------- 0 3.0 1.0 26 54
r 0.401333 3 0 cbr 1000 ------- 0 3.0 1.0 17 38
+ 0.401333 0 1 cbr 1000 ------- 0 3.0 1.0 17 38
- 0.402 3 0 cbr 1000 ------- 0 3.0 1.0 27 55
r 0.402 3 0 cbr 1000 ------- 0 3.0 1.0 18 39
+ 0.402 0 1 cbr 1000 ------- 0 3.0 1.0 18 39
r 0.402 0 1 cbr 1000 ------- 0 2.0 1.0 0 0
- 0.402 0 1 cbr 1000 ------- 0 3.0 1.0 17 38
r 0.402667 3 0 cbr 1000 ------- 0 3.0 1.0 19 40
+ 0.402667 0 1 cbr 1000 ------- 0 3.0 1.0 19 40
r 0.403333 0 1 cbr 1000 ------- 0 3.0 1.0 0 7
- 0.403333 0 1 cbr 1000 ------- 0 3.0 1.0 18 39
r 0.404667 0 1 cbr 1000 ------- 0 2.0 1.0 1 1
- 0.404667 0 1 cbr 1000 ------- 0 3.0 1.0 19 40
r 0.406 0 1 cbr 1000 ------- 0 3.0 1.0 1 8
r 0.407333 0 1 cbr 1000 ------- 0 2.0 1.0 2 2
r 0.408667 0 1 cbr 1000 ------- 0 3.0 1.0 2 9
r 0.41 0 1 cbr 1000 ------- 0 2.0 1.0 3 3
r 0.411333 0 1 cbr 1000 ------- 0 3.0 1.0 3 10
r 0.412667 0 1 cbr 1000 ------- 0 2.0 1.0 4 4
r 0.414 0 1 cbr 1000 ------- 0 2.0 1.0 5 5
r 0.415333 0 1 cbr 1000 ------- 0 2.0 1.0 6 6
+ 0.42 2 0 cbr 1000 ------- 0 2.0 1.0 28 56
- 0.42 2 0 cbr 1000 ------- 0 2.0 1.0 28 56
+ 0.42 2 0 cbr 1000 ------- 0 2.0 1.0 29 57
+ 0.42 2 0 cbr 1000 ------- 0 2.0 1.0 30 58
+ 0.42 2 0 cbr 1000 ------- 0 2.0 1.0 31 59
+ 0.42 2 0 cbr 1000 ------- 0 2.0 1.0 32 60
+ 0.42 2 0 cbr 1000 ------- 0 2.0 1.0 33 61
+ 0.42 2 0 cbr 1000 ------- 0 2.0 1.0 34 62
- 0.420667 2 0 cbr 1000 ------- 0 2.0 1.0 29 57
- 0.421333 2 0 cbr 1000 ------- 0 2.0 1.0 30 58
- 0.422 2 0 cbr 1000 ------- 0 2.0 1.0 31 59
- 0.422667 2 0 cbr 1000 ------- 0 2.0 1.0 32 60
- 0.423333 2 0 cbr 1000 ------- 0 2.0 1.0 33 61
- 0.424 2 0 cbr 1000 ------- 0 2.0 1.0 34 62
r 0.440667 2 0 cbr 1000 ------- 0 2.0 1.0 21 41
+ 0.440667 0 1 cbr 1000 ------- 0 2.0 1.0 21 41
- 0.440667 0 1 cbr 1000 ------- 0 2.0 1.0 21 41
r 0.441333 2 0 cbr 1000 ------- 0 2.0 1.0 22 42
+ 0.441333 0 1 cbr 1000 ------- 0 2.0 1.0 22 42
r 0.442 2 0 cbr 1000 ------- 0 2.0 1.0 23 43
+ 0.442 0 1 cbr 1000 ------- 0 2.0 1.0 23 43
- 0.442 0 1 cbr 1000 ------- 0 2.0 1.0 22 42
r 0.442667 2 0 cbr 1000 ------- 0 2.0 1.0 24 44
+ 0.442667 0 1 cbr 1000 ------- 0 2.0 1.0 24 44
r 0.443333 2 0 cbr 1000 ------- 0 2.0 1.0 25 45
+ 0.443333 0 1 cbr 1000 ------- 0 2.0 1.0 25 45
- 0.443333 0 1 cbr 1000 ------- 0 2.0 1.0 23 43
r 0.444 2 0 cbr 1000 ------- 0 2.0 1.0 26 46
+ 0.444 0 1 cbr 1000 ------- 0 2.0 1.0 26 46
r 0.444667 2 0 cbr 1000 ------- 0 2.0 1.0 27 47
+ 0.444667 0 1 cbr 1000 ------- 0 2.0 1.0 27 47
- 0.444667 0 1 cbr 1000 ------- 0 2.0 1.0 24 44
- 0.446 0 1 cbr 1000 ------- 0 2.0 1.0 25 45
- 0.447333 0 1 cbr 1000 ------- 0 2.0 1.0 26 46
- 0.448667 0 1 cbr 1000 ------- 0 2.0 1.0 27 47
+ 0.45 3 0 cbr 1000 ------- 0 3.0 1.0 28 63
- 0.45 3 0 cbr 1000 ------- 0 3.0 1.0 28 63
+ 0.45 3 0 cbr 1000 ------- 0 3.0 1.0 29 64
+ 0.45 3 0 cbr 1000 ------- 0 3.0 1.0 30 65
+ 0.45 3 0 cbr 1000 ------- 0 3.0 1.0 31 66
- 0.450667 3 0 cbr 1000 ------- 0 3.0 1.0 29 64
r 0.450667 3 0 cbr 1000 ------- 0 3.0 1.0 20 48
+ 0.450667 0 1 cbr 1000 ------- 0 3.0 1.0 20 48
- 0.450667 0 1 cbr 1000 ------- 0 3.0 1.0 20 48
- 0.451333 3 0 cbr 1000 ------- 0 3.0 1.0 30 65
r 0.451333 3 0 cbr 1000 ------- 0 3.0 1.0 21 49
+ 0.451333 0 1 cbr 1000 ------- 0 3.0 1.0 21 49
- 0.452 3 0 cbr 1000 ------- 0 3.0 1.0 31 66
r 0.452 3 0 cbr 1000 ------- 0 3.0 1.0 22 50
+ 0.452 0 1 cbr 1000 ------- 0 3.0 1.0 22 50
- 0.452 0 1 cbr 1000 ------- 0 3.0 1.0 21 49
r 0.452 0 1 cbr 1000 ------- 0 3.0 1.0 4 11
r 0.452667 3 0 cbr 1000 ------- 0 3.0 1.0 23 51
+ 0.452667 0 1 cbr 1000 ------- 0 3.0 1.0 23 51
r 0.453333 0 1 cbr 1000 ------- 0 3.0 1.0 5 12
- 0.453333 0 1 cbr 1000 ------- 0 3.0 1.0 22 50
- 0.454667 0 1 cbr 1000 ------- 0 3.0 1.0 23 51
r 0.454667 0 1 cbr 1000 ------- 0 3.0 1.0 6 13
r 0.456 0 1 cbr 1000 ------- 0 3.0 1.0 7 14
r 0.482 0 1 cbr 1000 ------- 0 2.0 1.0 7 15
r 0.483333 0 1 cbr 1000 ------- 0 2.0 1.0 8 16
r 0.484667 0 1 cbr 1000 ------- 0 2.0 1.0 9 17
r 0.486 0 1 cbr 1000 ------- 0 2.0 1.0 10 18
r 0.487333 0 1 cbr 1000 ------- 0 2.0 1.0 11 19
r 0.488667 0 1 cbr 1000 ------- 0 2.0 1.0 12 20
r 0.49 0 1 cbr 1000 ------- 0 2.0 1.0 13 21
+ 0.5 3 0 cbr 1000 ------- 0 3.0 1.0 32 67
- 0.5 3 0 cbr 1000 ------- 0 3.0 1.0 32 67
+ 0.5 3 0 cbr 1000 ------- 0 3.0 1.0 33 68
+ 0.5 3 0 cbr 1000 ------- 0 3.0 1.0 34 69
+ 0.5 3 0 cbr 1000 ------- 0 3.0 1.0 35 70
+ 0.5 4 0 cbr 1000 ------- 0 4.0 1.0 0 71
- 0.5 4 0 cbr 1000 ------- 0 4.0 1.0 0 71
+ 0.5 4 0 cbr 1000 ------- 0 4.0 1.0 1 72
+ 0.5 4 0 cbr 1000 ------- 0 4.0 1.0 2 73
+ 0.5 4 0 cbr 1000 ------- 0 4.0 1.0 3 74
+ 0.5 4 0 cbr 1000 ------- 0 4.0 1.0 4 75
+ 0.5 4 0 cbr 1000 ------- 0 4.0 1.0 5 76
+ 0.5 4 0 cbr 1000 ------- 0 4.0 1.0 6 77
+ 0.5 4 0 cbr 1000 ------- 0 4.0 1.0 7 78
+ 0.5 4 0 cbr 1000 ------- 0 4.0 1.0 8 79
+ 0.5 4 0 cbr 1000 ------- 0 4.0 1.0 9 80
+ 0.5 4 0 cbr 1000 ------- 0 4.0 1.0 10 81
+ 0.5 4 0 cbr 1000 ------- 0 4.0 1.0 11 82
+ 0.5 4 0 cbr 1000 ------- 0 4.0 1.0 12 83
+ 0.5 4 0 cbr 1000 ------- 0 4.0 1.0 13 84
+ 0.5 4 0 cbr 1000 ------- 0 4.0 1.0 14 85
+ 0.5 4 0 cbr 1000 ------- 0 4.0 1.0 15 86
+ 0.5 4 0 cbr 1000 ------- 0 4.0 1.0 16 87
+ 0.5 4 0 cbr 1000 ------- 0 4.0 1.0 17 88
+ 0.5 4 0 cbr 1000 ------- 0 4.0 1.0 18 89
+ 0.5 4 0 cbr 1000 ------- 0 4.0 1.0 19 90
+ 0.5 4 0 cbr 1000 ------- 0 4.0 1.0 20 91
+ 0.5 4 0 cbr 1000 ------- 0 4.0 1.0 21 92
+ 0.5 4 0 cbr 1000 ------- 0 4.0 1.0 22 93
+ 0.5 4 0 cbr 1000 ------- 0 4.0 1.0 23 94
+ 0.5 2 0 cbr 1000 ------- 0 2.0 1.0 35 95
- 0.5 2 0 cbr 1000 ------- 0 2.0 1.0 35 95
+ 0.5 2 0 cbr 1000 ------- 0 2.0 1.0 36 96
+ 0.5 2 0 cbr 1000 ------- 0 2.0 1.0 37 97
+ 0.5 2 0 cbr 1000 ------- 0 2.0 1.0 38 98
+ 0.5 2 0 cbr 1000 ------- 0 2.0 1.0 39 99
+ 0.5 2 0 cbr 1000 ------- 0 2.0 1.0 40 100
+ 0.5 2 0 cbr 1000 ------- 0 2.0 1.0 41 101
r 0.500667 3 0 cbr 1000 ------- 0 3.0 1.0 24 52
+ 0.500667 0 1 cbr 1000 ------- 0 3.0 1.0 24 52
- 0.500667 0 1 cbr 1000 ------- 0 3.0 1.0 24 52
- 0.500667 3 0 cbr 1000 ------- 0 3.0 1.0 33 68
- 0.500667 4 0 cbr 1000 ------- 0 4.0 1.0 1 72
- 0.500667 2 0 cbr 1000 ------- 0 2.0 1.0 36 96
r 0.501333 3 0 cbr 1000 ------- 0 3.0 1.0 25 53
+ 0.501333 0 1 cbr 1000 ------- 0 3.0 1.0 25 53
- 0.501333 3 0 cbr 1000 ------- 0 3.0 1.0 34 69
- 0.501333 4 0 cbr 1000 ------- 0 4.0 1.0 2 73
- 0.501333 2 0 cbr 1000 ------- 0 2.0 1.0 37 97
r 0.502 3 0 cbr 1000 ------- 0 3.0 1.0 26 54
+ 0.502 0 1 cbr 1000 ------- 0 3.0 1.0 26 54
- 0.502 0 1 cbr 1000 ------- 0 3.0 1.0 25 53
r 0.502 0 1 cbr 1000 ------- 0 3.0 1.0 8 22
- 0.502 3 0 cbr 1000 ------- 0 3.0 1.0 35 70
- 0.502 4 0 cbr 1000 ------- 0 4.0 1.0 3 74
- 0.502 2 0 cbr 1000 ------- 0 2.0 1.0 38 98
r 0.502667 3 0 cbr 1000 ------- 0 3.0 1.0 27 55
+ 0.502667 0 1 cbr 1000 ------- 0 3.0 1.0 27 55
- 0.502667 4 0 cbr 1000 ------- 0 4.0 1.0 4 75
- 0.502667 2 0 cbr 1000 ------- 0 2.0 1.0 39 99
- 0.503333 0 1 cbr 1000 ------- 0 3.0 1.0 26 54
r 0.503333 0 1 cbr 1000 ------- 0 3.0 1.0 9 23
- 0.503333 4 0 cbr 1000 ------- 0 4.0 1.0 5 76
- 0.503333 2 0 cbr 1000 ------- 0 2.0 1.0 40 100
- 0.504 4 0 cbr 1000 ------- 0 4.0 1.0 6 77
- 0.504 2 0 cbr 1000 ------- 0 2.0 1.0 41 101
- 0.504667 0 1 cbr 1000 ------- 0 3.0 1.0 27 55
r 0.504667 0 1 cbr 1000 ------- 0 3.0 1.0 10 24
- 0.504667 4 0 cbr 1000 ------- 0 4.0 1.0 7 78
- 0.505333 4 0 cbr 1000 ------- 0 4.0 1.0 8 79
r 0.506 0 1 cbr 1000 ------- 0 3.0 1.0 11 25
- 0.506 4 0 cbr 1000 ------- 0 4.0 1.0 9 80
- 0.506667 4 0 cbr 1000 ------- 0 4.0 1.0 10 81
- 0.507333 4 0 cbr 1000 ------- 0 4.0 1.0 11 82
- 0.508 4 0 cbr 1000 ------- 0 4.0 1.0 12 83
- 0.508667 4 0 cbr 1000 ------- 0 4.0 1.0 13 84
- 0.509333 4 0 cbr 1000 ------- 0 4.0 1.0 14 85
- 0.51 4 0 cbr 1000 ------- 0 4.0 1.0 15 86
- 0.510667 4 0 cbr 1000 ------- 0 4.0 1.0 16 87
- 0.511333 4 0 cbr 1000 ------- 0 4.0 1.0 17 88
- 0.512 4 0 cbr 1000 ------- 0 4.0 1.0 18 89
- 0.512667 4 0 cbr 1000 ------- 0 4.0 1.0 19 90
- 0.513333 4 0 cbr 1000 ------- 0 4.0 1.0 20 91
- 0.514 4 0 cbr 1000 ------- 0 4.0 1.0 21 92
- 0.514667 4 0 cbr 1000 ------- 0 4.0 1.0 22 93
- 0.515333 4 0 cbr 1000 ------- 0 4.0 1.0 23 94
r 0.520667 2 0 cbr 1000 ------- 0 2.0 1.0 28 56
+ 0.520667 0 1 cbr 1000 ------- 0 2.0 1.0 28 56
- 0.520667 0 1 cbr 1000 ------- 0 2.0 1.0 28 56
r 0.521333 2 0 cbr 1000 ------- 0 2.0 1.0 29 57
+ 0.521333 0 1 cbr 1000 ------- 0 2.0 1.0 29 57
r 0.522 2 0 cbr 1000 ------- 0 2.0 1.0 30 58
+ 0.522 0 1 cbr 1000 ------- 0 2.0 1.0 30 58
- 0.522 0 1 cbr 1000 ------- 0 2.0 1.0 29 57
r 0.522667 2 0 cbr 1000 ------- 0 2.0 1.0 31 59
+ 0.522667 0 1 cbr 1000 ------- 0 2.0 1.0 31 59
r 0.523333 2 0 cbr 1000 ------- 0 2.0 1.0 32 60
+ 0.523333 0 1 cbr 1000 ------- 0 2.0 1.0 32 60
- 0.523333 0 1 cbr 1000 ------- 0 2.0 1.0 30 58
r 0.524 2 0 cbr 1000 ------- 0 2.0 1.0 33 61
+ 0.524 0 1 cbr 1000 ------- 0 2.0 1.0 33 61
r 0.524667 2 0 cbr 1000 ------- 0 2.0 1.0 34 62
+ 0.524667 0 1 cbr 1000 ------- 0 2.0 1.0 34 62
- 0.524667 0 1 cbr 1000 ------- 0 2.0 1.0 31 59
- 0.526 0 1 cbr 1000 ------- 0 2.0 1.0 32 60
- 0.527333 0 1 cbr 1000 ------- 0 2.0 1.0 33 61
- 0.528667 0 1 cbr 1000 ------- 0 2.0 1.0 34 62
+ 0.55 3 0 cbr 1000 ------- 0 3.0 1.0 36 102
- 0.55 3 0 cbr 1000 ------- 0 3.0 1.0 36 102
+ 0.55 3 0 cbr 1000 ------- 0 3.0 1.0 37 103
+ 0.55 3 0 cbr 1000 ------- 0 3.0 1.0 38 104
+ 0.55 3 0 cbr 1000 ------- 0 3.0 1.0 39 105
r 0.550667 3 0 cbr 1000 ------- 0 3.0 1.0 28 63
+ 0.550667 0 1 cbr 1000 ------- 0 3.0 1.0 28 63
- 0.550667 0 1 cbr 1000 ------- 0 3.0 1.0 28 63
- 0.550667 3 0 cbr 1000 ------- 0 3.0 1.0 37 103
r 0.551333 3 0 cbr 1000 ------- 0 3.0 1.0 29 64
+ 0.551333 0 1 cbr 1000 ------- 0 3.0 1.0 29 64
- 0.551333 3 0 cbr 1000 ------- 0 3.0 1.0 38 104
r 0.552 3 0 cbr 1000 ------- 0 3.0 1.0 30 65
+ 0.552 0 1 cbr 1000 ------- 0 3.0 1.0 30 65
- 0.552 0 1 cbr 1000 ------- 0 3.0 1.0 29 64
r 0.552 0 1 cbr 1000 ------- 0 3.0 1.0 12 26
- 0.552 3 0 cbr 1000 ------- 0 3.0 1.0 39 105
r 0.552667 3 0 cbr 1000 ------- 0 3.0 1.0 31 66
+ 0.552667 0 1 cbr 1000 ------- 0 3.0 1.0 31 66
- 0.553333 0 1 cbr 1000 ------- 0 3.0 1.0 30 65
r 0.553333 0 1 cbr 1000 ------- 0 3.0 1.0 13 27
- 0.554667 0 1 cbr 1000 ------- 0 3.0 1.0 31 66
r 0.554667 0 1 cbr 1000 ------- 0 3.0 1.0 14 28
r 0.556 0 1 cbr 1000 ------- 0 3.0 1.0 15 29
r 0.562 0 1 cbr 1000 ------- 0 2.0 1.0 14 30
r 0.563333 0 1 cbr 1000 ------- 0 2.0 1.0 15 31
r 0.564667 0 1 cbr 1000 ------- 0 2.0 1.0 16 32
r 0.566 0 1 cbr 1000 ------- 0 2.0 1.0 17 33
r 0.567333 0 1 cbr 1000 ------- 0 2.0 1.0 18 34
r 0.568667 0 1 cbr 1000 ------- 0 2.0 1.0 19 35
r 0.57 0 1 cbr 1000 ------- 0 2.0 1.0 20 36
+ 0.58 4 0 cbr 1000 ------- 0 4.0 1.0 24 106
- 0.58 4 0 cbr 1000 ------- 0 4.0 1.0 24 106
+ 0.58 4 0 cbr 1000 ------- 0 4.0 1.0 25 107
+ 0.58 4 0 cbr 1000 ------- 0 4.0 1.0 26 108
+ 0.58 4 0 cbr 1000 ------- 0 4.0 1.0 27 109
+ 0.58 4 0 cbr 1000 ------- 0 4.0 1.0 28 110
+ 0.58 4 0 cbr 1000 ------- 0 4.0 1.0 29 111
+ 0.58 4 0 cbr 1000 ------- 0 4.0 1.0 30 112
+ 0.58 4 0 cbr 1000 ------- 0 4.0 1.0 31 113
+ 0.58 4 0 cbr 1000 ------- 0 4.0 1.0 32 114
+ 0.58 4 0 cbr 1000 ------- 0 4.0 1.0 33 115
+ 0.58 4 0 cbr 1000 ------- 0 4.0 1.0 34 116
+ 0.58 4 0 cbr 1000 ------- 0 4.0 1.0 35 117
+ 0.58 4 0 cbr 1000 ------- 0 4.0 1.0 36 118
+ 0.58 4 0 cbr 1000 ------- 0 4.0 1.0 37 119
+ 0.58 4 0 cbr 1000 ------- 0 4.0 1.0 38 120
+ 0.58 4 0 cbr 1000 ------- 0 4.0 1.0 39 121
+ 0.58 4 0 cbr 1000 ------- 0 4.0 1.0 40 122
+ 0.58 4 0 cbr 1000 ------- 0 4.0 1.0 41 123
+ 0.58 4 0 cbr 1000 ------- 0 4.0 1.0 42 124
+ 0.58 4 0 cbr 1000 ------- 0 4.0 1.0 43 125
+ 0.58 4 0 cbr 1000 ------- 0 4.0 1.0 44 126
+ 0.58 4 0 cbr 1000 ------- 0 4.0 1.0 45 127
+ 0.58 4 0 cbr 1000 ------- 0 4.0 1.0 46 128
+ 0.58 4 0 cbr 1000 ------- 0 4.0 1.0 47 129
+ 0.58 2 0 cbr 1000 ------- 0 2.0 1.0 42 130
- 0.58 2 0 cbr 1000 ------- 0 2.0 1.0 42 130
+ 0.58 2 0 cbr 1000 ------- 0 2.0 1.0 43 131
+ 0.58 2 0 cbr 1000 ------- 0 2.0 1.0 44 132
+ 0.58 2 0 cbr 1000 ------- 0 2.0 1.0 45 133
+ 0.58 2 0 cbr 1000 ------- 0 2.0 1.0 46 134
+ 0.58 2 0 cbr 1000 ------- 0 2.0 1.0 47 135
+ 0.58 2 0 cbr 1000 ------- 0 2.0 1.0 48 136
- 0.580667 4 0 cbr 1000 ------- 0 4.0 1.0 25 107
- 0.580667 2 0 cbr 1000 ------- 0 2.0 1.0 43 131
- 0.581333 4 0 cbr 1000 ------- 0 4.0 1.0 26 108
- 0.581333 2 0 cbr 1000 ------- 0 2.0 1.0 44 132
- 0.582 4 0 cbr 1000 ------- 0 4.0 1.0 27 109
- 0.582 2 0 cbr 1000 ------- 0 2.0 1.0 45 133
- 0.582667 4 0 cbr 1000 ------- 0 4.0 1.0 28 110
- 0.582667 2 0 cbr 1000 ------- 0 2.0 1.0 46 134
- 0.583333 4 0 cbr 1000 ------- 0 4.0 1.0 29 111
- 0.583333 2 0 cbr 1000 ------- 0 2.0 1.0 47 135
- 0.584 4 0 cbr 1000 ------- 0 4.0 1.0 30 112
- 0.584 2 0 cbr 1000 ------- 0 2.0 1.0 48 136
- 0.584667 4 0 cbr 1000 ------- 0 4.0 1.0 31 113
- 0.585333 4 0 cbr 1000 ------- 0 4.0 1.0 32 114
- 0.586 4 0 cbr 1000 ------- 0 4.0 1.0 33 115
- 0.586667 4 0 cbr 1000 ------- 0 4.0 1.0 34 116
- 0.587333 4 0 cbr 1000 ------- 0 4.0 1.0 35 117
- 0.588 4 0 cbr 1000 ------- 0 4.0 1.0 36 118
- 0.588667 4 0 cbr 1000 ------- 0 4.0 1.0 37 119
- 0.589333 4 0 cbr 1000 ------- 0 4.0 1.0 38 120
- 0.59 4 0 cbr 1000 ------- 0 4.0 1.0 39 121
- 0.590667 4 0 cbr 1000 ------- 0 4.0 1.0 40 122
- 0.591333 4 0 cbr 1000 ------- 0 4.0 1.0 41 123
- 0.592 4 0 cbr 1000 ------- 0 4.0 1.0 42 124
- 0.592667 4 0 cbr 1000 ------- 0 4.0 1.0 43 125
- 0.593333 4 0 cbr 1000 ------- 0 4.0 1.0 44 126
- 0.594 4 0 cbr 1000 ------- 0 4.0 1.0 45 127
- 0.594667 4 0 cbr 1000 ------- 0 4.0 1.0 46 128
- 0.595333 4 0 cbr 1000 ------- 0 4.0 1.0 47 129
+ 0.6 3 0 cbr 1000 ------- 0 3.0 1.0 40 137
- 0.6 3 0 cbr 1000 ------- 0 3.0 1.0 40 137
+ 0.6 3 0 cbr 1000 ------- 0 3.0 1.0 41 138
+ 0.6 3 0 cbr 1000 ------- 0 3.0 1.0 42 139
+ 0.6 3 0 cbr 1000 ------- 0 3.0 1.0 43 140
r 0.600667 3 0 cbr 1000 ------- 0 3.0 1.0 32 67
+ 0.600667 0 1 cbr 1000 ------- 0 3.0 1.0 32 67
- 0.600667 0 1 cbr 1000 ------- 0 3.0 1.0 32 67
r 0.600667 4 0 cbr 1000 ------- 0 4.0 1.0 0 71
+ 0.600667 0 1 cbr 1000 ------- 0 4.0 1.0 0 71
r 0.600667 2 0 cbr 1000 ------- 0 2.0 1.0 35 95
+ 0.600667 0 1 cbr 1000 ------- 0 2.0 1.0 35 95
- 0.600667 3 0 cbr 1000 ------- 0 3.0 1.0 41 138
r 0.601333 3 0 cbr 1000 ------- 0 3.0 1.0 33 68
+ 0.601333 0 1 cbr 1000 ------- 0 3.0 1.0 33 68
r 0.601333 4 0 cbr 1000 ------- 0 4.0 1.0 1 72
+ 0.601333 0 1 cbr 1000 ------- 0 4.0 1.0 1 72
r 0.601333 2 0 cbr 1000 ------- 0 2.0 1.0 36 96
+ 0.601333 0 1 cbr 1000 ------- 0 2.0 1.0 36 96
- 0.601333 3 0 cbr 1000 ------- 0 3.0 1.0 42 139
- 0.602 0 1 cbr 1000 ------- 0 4.0 1.0 0 71
r 0.602 0 1 cbr 1000 ------- 0 3.0 1.0 16 37
r 0.602 3 0 cbr 1000 ------- 0 3.0 1.0 34 69
+ 0.602 0 1 cbr 1000 ------- 0 3.0 1.0 34 69
r 0.602 4 0 cbr 1000 ------- 0 4.0 1.0 2 73
+ 0.602 0 1 cbr 1000 ------- 0 4.0 1.0 2 73
r 0.602 2 0 cbr 1000 ------- 0 2.0 1.0 37 97
+ 0.602 0 1 cbr 1000 ------- 0 2.0 1.0 37 97
- 0.602 3 0 cbr 1000 ------- 0 3.0 1.0 43 140
r 0.602667 3 0 cbr 1000 ------- 0 3.0 1.0 35 70
+ 0.602667 0 1 cbr 1000 ------- 0 3.0 1.0 35 70
r 0.602667 4 0 cbr 1000 ------- 0 4.0 1.0 3 74
+ 0.602667 0 1 cbr 1000 ------- 0 4.0 1.0 3 74
r 0.602667 2 0 cbr 1000 ------- 0 2.0 1.0 38 98
+ 0.602667 0 1 cbr 1000 ------- 0 2.0 1.0 38 98
- 0.603333 0 1 cbr 1000 ------- 0 2.0 1.0 35 95
r 0.603333 0 1 cbr 1000 ------- 0 3.0 1.0 17 38
r 0.603333 4 0 cbr 1000 ------- 0 4.0 1.0 4 75
+ 0.603333 0 1 cbr 1000 ------- 0 4.0 1.0 4 75
r 0.603333 2 0 cbr 1000 ------- 0 2.0 1.0 39 99
+ 0.603333 0 1 cbr 1000 ------- 0 2.0 1.0 39 99
r 0.604 4 0 cbr 1000 ------- 0 4.0 1.0 5 76
+ 0.604 0 1 cbr 1000 ------- 0 4.0 1.0 5 76
r 0.604 2 0 cbr 1000 ------- 0 2.0 1.0 40 100
+ 0.604 0 1 cbr 1000 ------- 0 2.0 1.0 40 100
- 0.604667 0 1 cbr 1000 ------- 0 3.0 1.0 33 68
r 0.604667 0 1 cbr 1000 ------- 0 3.0 1.0 18 39
r 0.604667 4 0 cbr 1000 ------- 0 4.0 1.0 6 77
+ 0.604667 0 1 cbr 1000 ------- 0 4.0 1.0 6 77
r 0.604667 2 0 cbr 1000 ------- 0 2.0 1.0 41 101
+ 0.604667 0 1 cbr 1000 ------- 0 2.0 1.0 41 101
r 0.605333 4 0 cbr 1000 ------- 0 4.0 1.0 7 78
+ 0.605333 0 1 cbr 1000 ------- 0 4.0 1.0 7 78
- 0.606 0 1 cbr 1000 ------- 0 4.0 1.0 1 72
r 0.606 0 1 cbr 1000 ------- 0 3.0 1.0 19 40
r 0.606 4 0 cbr 1000 ------- 0 4.0 1.0 8 79
+ 0.606 0 1 cbr 1000 ------- 0 4.0 1.0 8 79
r 0.606667 4 0 cbr 1000 ------- 0 4.0 1.0 9 80
+ 0.606667 0 1 cbr 1000 ------- 0 4.0 1.0 9 80
- 0.607333 0 1 cbr 1000 ------- 0 2.0 1.0 36 96
r 0.607333 4 0 cbr 1000 ------- 0 4.0 1.0 10 81
+ 0.607333 0 1 cbr 1000 ------- 0 4.0 1.0 10 81
r 0.608 4 0 cbr 1000 ------- 0 4.0 1.0 11 82
+ 0.608 0 1 cbr 1000 ------- 0 4.0 1.0 11 82
- 0.608667 0 1 cbr 1000 ------- 0 3.0 1.0 34 69
r 0.608667 4 0 cbr 1000 ------- 0 4.0 1.0 12 83
+ 0.608667 0 1 cbr 1000 ------- 0 4.0 1.0 12 83
r 0.609333 4 0 cbr 1000 ------- 0 4.0 1.0 13 84
+ 0.609333 0 1 cbr 1000 ------- 0 4.0 1.0 13 84
- 0.61 0 1 cbr 1000 ------- 0 4.0 1.0 2 73
r 0.61 4 0 cbr 1000 ------- 0 4.0 1.0 14 85
+ 0.61 0 1 cbr 1000 ------- 0 4.0 1.0 14 85
r 0.610667 4 0 cbr 1000 ------- 0 4.0 1.0 15 86
+ 0.610667 0 1 cbr 1000 ------- 0 4.0 1.0 15 86
- 0.611333 0 1 cbr 1000 ------- 0 2.0 1.0 37 97
r 0.611333 4 0 cbr 1000 ------- 0 4.0 1.0 16 87
+ 0.611333 0 1 cbr 1000 ------- 0 4.0 1.0 16 87
r 0.612 4 0 cbr 1000 ------- 0 4.0 1.0 17 88
+ 0.612 0 1 cbr 1000 ------- 0 4.0 1.0 17 88
d 0.612 0 1 cbr 1000 ------- 0 4.0 1.0 17 88
- 0.612667 0 1 cbr 1000 ------- 0 3.0 1.0 35 70
r 0.612667 4 0 cbr 1000 ------- 0 4.0 1.0 18 89
+ 0.612667 0 1 cbr 1000 ------- 0 4.0 1.0 18 89
r 0.613333 4 0 cbr 1000 ------- 0 4.0 1.0 19 90
+ 0.613333 0 1 cbr 1000 ------- 0 4.0 1.0 19 90
d 0.613333 0 1 cbr 1000 ------- 0 4.0 1.0 19 90
- 0.614 0 1 cbr 1000 ------- 0 4.0 1.0 3 74
r 0.614 4 0 cbr 1000 ------- 0 4.0 1.0 20 91
+ 0.614 0 1 cbr 1000 ------- 0 4.0 1.0 20 91
r 0.614667 4 0 cbr 1000 ------- 0 4.0 1.0 21 92
+ 0.614667 0 1 cbr 1000 ------- 0 4.0 1.0 21 92
d 0.614667 0 1 cbr 1000 ------- 0 4.0 1.0 21 92
- 0.615333 0 1 cbr 1000 ------- 0 2.0 1.0 38 98
r 0.615333 4 0 cbr 1000 ------- 0 4.0 1.0 22 93
+ 0.615333 0 1 cbr 1000 ------- 0 4.0 1.0 22 93
r 0.616 4 0 cbr 1000 ------- 0 4.0 1.0 23 94
+ 0.616 0 1 cbr 1000 ------- 0 4.0 1.0 23 94
d 0.616 0 1 cbr 1000 ------- 0 4.0 1.0 23 94
- 0.616667 0 1 cbr 1000 ------- 0 4.0 1.0 4 75
- 0.618 0 1 cbr 1000 ------- 0 2.0 1.0 39 99
- 0.619333 0 1 cbr 1000 ------- 0 4.0 1.0 5 76
- 0.620667 0 1 cbr 1000 ------- 0 2.0 1.0 40 100
- 0.622 0 1 cbr 1000 ------- 0 4.0 1.0 6 77
- 0.623333 0 1 cbr 1000 ------- 0 2.0 1.0 41 101
- 0.624667 0 1 cbr 1000 ------- 0 4.0 1.0 7 78
- 0.626 0 1 cbr 1000 ------- 0 4.0 1.0 8 79
- 0.627333 0 1 cbr 1000 ------- 0 4.0 1.0 9 80
- 0.628667 0 1 cbr 1000 ------- 0 4.0 1.0 10 81
- 0.63 0 1 cbr 1000 ------- 0 4.0 1.0 11 82
- 0.631333 0 1 cbr 1000 ------- 0 4.0 1.0 12 83
- 0.632667 0 1 cbr 1000 ------- 0 4.0 1.0 13 84
- 0.634 0 1 cbr 1000 ------- 0 4.0 1.0 14 85
- 0.635333 0 1 cbr 1000 ------- 0 4.0 1.0 15 86
- 0.636667 0 1 cbr 1000 ------- 0 4.0 1.0 16 87
- 0.638 0 1 cbr 1000 ------- 0 4.0 1.0 18 89
- 0.639333 0 1 cbr 1000 ------- 0 4.0 1.0 20 91
- 0.640667 0 1 cbr 1000 ------- 0 4.0 1.0 22 93
r 0.642 0 1 cbr 1000 ------- 0 2.0 1.0 21 41
r 0.643333 0 1 cbr 1000 ------- 0 2.0 1.0 22 42
r 0.644667 0 1 cbr 1000 ------- 0 2.0 1.0 23 43
r 0.646 0 1 cbr 1000 ------- 0 2.0 1.0 24 44
r 0.647333 0 1 cbr 1000 ------- 0 2.0 1.0 25 45
r 0.648667 0 1 cbr 1000 ------- 0 2.0 1.0 26 46
+ 0.65 3 0 cbr 1000 ------- 0 3.0 1.0 44 141
- 0.65 3 0 cbr 1000 ------- 0 3.0 1.0 44 141
+ 0.65 3 0 cbr 1000 ------- 0 3.0 1.0 45 142
+ 0.65 3 0 cbr 1000 ------- 0 3.0 1.0 46 143
+ 0.65 3 0 cbr 1000 ------- 0 3.0 1.0 47 144
r 0.65 0 1 cbr 1000 ------- 0 2.0 1.0 27 47
r 0.650667 3 0 cbr 1000 ------- 0 3.0 1.0 36 102
+ 0.650667 0 1 cbr 1000 ------- 0 3.0 1.0 36 102
- 0.650667 0 1 cbr 1000 ------- 0 3.0 1.0 36 102
- 0.650667 3 0 cbr 1000 ------- 0 3.0 1.0 45 142
r 0.651333 3 0 cbr 1000 ------- 0 3.0 1.0 37 103
+ 0.651333 0 1 cbr 1000 ------- 0 3.0 1.0 37 103
- 0.651333 3 0 cbr 1000 ------- 0 3.0 1.0 46 143
- 0.652 0 1 cbr 1000 ------- 0 3.0 1.0 37 103
r 0.652 0 1 cbr 1000 ------- 0 3.0 1.0 20 48
r 0.652 3 0 cbr 1000 ------- 0 3.0 1.0 38 104
+ 0.652 0 1 cbr 1000 ------- 0 3.0 1.0 38 104